Program Version,EnergyPlus, Version 9.0.1-bb7ca4f0da, YMD=2024.08.21 15:44
1,5,Environment Title[],Latitude[deg],Longitude[deg],Time Zone[],Elevation[m]
2,8,Day of Simulation[],Month[],Day of Month[],DST Indicator[1=yes 0=no],Hour[],StartMinute[],EndMinute[],DayType
3,5,Cumulative Day of Simulation[],Month[],Day of Month[],DST Indicator[1=yes 0=no],DayType  ! When Daily Report Variables Requested
4,2,Cumulative Days of Simulation[],Month[]  ! When Monthly Report Variables Requested
5,1,Cumulative Days of Simulation[] ! When Run Period Report Variables Requested
6,1,Calendar Year of Simulation[] ! When Annual Report Variables Requested
8743,1,Whole Building,Facility Total HVAC Electric Demand Power [W] !TimeStep
End of Data Dictionary
1,RUNPERIOD 1,  35.04,-106.62,  -7.00,1619.00
2,1, 5, 1, 1, 1, 0.00, 5.00,Sunday
8743,3895.1433884295577
2,1, 5, 1, 1, 1, 5.00,10.00,Sunday
8743,5575.856792905603
2,1, 5, 1, 1, 1,10.00,15.00,Sunday
8743,3895.2523500235258
2,1, 5, 1, 1, 1,15.00,20.00,Sunday
8743,3895.2523500235258
2,1, 5, 1, 1, 1,20.00,25.00,Sunday
8743,5424.974638782199
2,1, 5, 1, 1, 1,25.00,30.00,Sunday
8743,3895.2523500235258
2,1, 5, 1, 1, 1,30.00,35.00,Sunday
8743,3895.2523500235258
2,1, 5, 1, 1, 1,35.00,40.00,Sunday
8743,5382.267932011393
2,1, 5, 1, 1, 1,40.00,45.00,Sunday
8743,3895.2523500235258
2,1, 5, 1, 1, 1,45.00,50.00,Sunday
8743,3895.2523500235258
2,1, 5, 1, 1, 1,50.00,55.00,Sunday
8743,3895.2523500235258
2,1, 5, 1, 1, 1,55.00,60.00,Sunday
8743,3895.2523500235258
2,1, 5, 1, 1, 2, 0.00, 5.00,Sunday
8743,3882.474750701699
2,1, 5, 1, 1, 2, 5.00,10.00,Sunday
8743,3882.474750701699
2,1, 5, 1, 1, 2,10.00,15.00,Sunday
8743,3882.474750701699
2,1, 5, 1, 1, 2,15.00,20.00,Sunday
8743,3882.474750701699
2,1, 5, 1, 1, 2,20.00,25.00,Sunday
8743,3882.474750701699
2,1, 5, 1, 1, 2,25.00,30.00,Sunday
8743,5353.644933295667
2,1, 5, 1, 1, 2,30.00,35.00,Sunday
8743,3882.474750701699
2,1, 5, 1, 1, 2,35.00,40.00,Sunday
8743,3882.474750701699
2,1, 5, 1, 1, 2,40.00,45.00,Sunday
8743,5356.268394471807
2,1, 5, 1, 1, 2,45.00,50.00,Sunday
8743,3882.474750701699
2,1, 5, 1, 1, 2,50.00,55.00,Sunday
8743,3882.474750701699
2,1, 5, 1, 1, 2,55.00,60.00,Sunday
8743,5388.908319090579
2,1, 5, 1, 1, 3, 0.00, 5.00,Sunday
8743,3876.347797756629
2,1, 5, 1, 1, 3, 5.00,10.00,Sunday
8743,5345.203738368186
2,1, 5, 1, 1, 3,10.00,15.00,Sunday
8743,3876.347797756629
2,1, 5, 1, 1, 3,15.00,20.00,Sunday
8743,5477.078932657264
2,1, 5, 1, 1, 3,20.00,25.00,Sunday
8743,3876.347797756629
2,1, 5, 1, 1, 3,25.00,30.00,Sunday
8743,5378.921630711514
2,1, 5, 1, 1, 3,30.00,35.00,Sunday
8743,5362.159339358186
2,1, 5, 1, 1, 3,35.00,40.00,Sunday
8743,5496.649146314211
2,1, 5, 1, 1, 3,40.00,45.00,Sunday
8743,3876.347797756629
2,1, 5, 1, 1, 3,45.00,50.00,Sunday
8743,5538.606697278733
2,1, 5, 1, 1, 3,50.00,55.00,Sunday
8743,5368.91988149055
2,1, 5, 1, 1, 3,55.00,60.00,Sunday
8743,5512.089602344564
2,1, 5, 1, 1, 4, 0.00, 5.00,Sunday
8743,3876.388718578945
2,1, 5, 1, 1, 4, 5.00,10.00,Sunday
8743,5693.3391958292199
2,1, 5, 1, 1, 4,10.00,15.00,Sunday
8743,5357.005119400838
2,1, 5, 1, 1, 4,15.00,20.00,Sunday
8743,5656.802920747935
2,1, 5, 1, 1, 4,20.00,25.00,Sunday
8743,3876.4330740474758
2,1, 5, 1, 1, 4,25.00,30.00,Sunday
8743,5854.121770353432
2,1, 5, 1, 1, 4,30.00,35.00,Sunday
8743,3876.4330740474758
2,1, 5, 1, 1, 4,35.00,40.00,Sunday
8743,5850.742023251495
2,1, 5, 1, 1, 4,40.00,45.00,Sunday
8743,3876.4330740474758
2,1, 5, 1, 1, 4,45.00,50.00,Sunday
8743,5949.494821587077
2,1, 5, 1, 1, 4,50.00,55.00,Sunday
8743,3876.4330740474758
2,1, 5, 1, 1, 4,55.00,60.00,Sunday
8743,5990.1478089042179
2,1, 5, 1, 1, 5, 0.00, 5.00,Sunday
8743,3908.9271978965355
2,1, 5, 1, 1, 5, 5.00,10.00,Sunday
8743,5942.46708557389
2,1, 5, 1, 1, 5,10.00,15.00,Sunday
8743,3909.0161731168188
2,1, 5, 1, 1, 5,15.00,20.00,Sunday
8743,5920.717459786677
2,1, 5, 1, 1, 5,20.00,25.00,Sunday
8743,3909.0161731168188
2,1, 5, 1, 1, 5,25.00,30.00,Sunday
8743,5946.701399715128
2,1, 5, 1, 1, 5,30.00,35.00,Sunday
8743,3909.0161731168188
2,1, 5, 1, 1, 5,35.00,40.00,Sunday
8743,5949.429824191217
2,1, 5, 1, 1, 5,40.00,45.00,Sunday
8743,3909.0161731168188
2,1, 5, 1, 1, 5,45.00,50.00,Sunday
8743,5966.399195602322
2,1, 5, 1, 1, 5,50.00,55.00,Sunday
8743,3909.0161731168188
2,1, 5, 1, 1, 5,55.00,60.00,Sunday
8743,5975.43111653929
2,1, 5, 1, 1, 6, 0.00, 5.00,Sunday
8743,5309.62297966088
2,1, 5, 1, 1, 6, 5.00,10.00,Sunday
8743,5599.569531425989
2,1, 5, 1, 1, 6,10.00,15.00,Sunday
8743,5564.014115106911
2,1, 5, 1, 1, 6,15.00,20.00,Sunday
8743,4834.109665115629
2,1, 5, 1, 1, 6,20.00,25.00,Sunday
8743,3996.563429522809
2,1, 5, 1, 1, 6,25.00,30.00,Sunday
8743,5778.092605880816
2,1, 5, 1, 1, 6,30.00,35.00,Sunday
8743,3996.563429522809
2,1, 5, 1, 1, 6,35.00,40.00,Sunday
8743,5495.072420785107
2,1, 5, 1, 1, 6,40.00,45.00,Sunday
8743,5699.880504345487
2,1, 5, 1, 1, 6,45.00,50.00,Sunday
8743,5502.687859995658
2,1, 5, 1, 1, 6,50.00,55.00,Sunday
8743,3996.563429522809
2,1, 5, 1, 1, 6,55.00,60.00,Sunday
8743,5471.91472380129
2,1, 5, 1, 1, 7, 0.00, 5.00,Sunday
8743,5087.675897734163
2,1, 5, 1, 1, 7, 5.00,10.00,Sunday
8743,4402.086746373279
2,1, 5, 1, 1, 7,10.00,15.00,Sunday
8743,4107.423626656053
2,1, 5, 1, 1, 7,15.00,20.00,Sunday
8743,4107.423626656053
2,1, 5, 1, 1, 7,20.00,25.00,Sunday
8743,4107.423626656053
2,1, 5, 1, 1, 7,25.00,30.00,Sunday
8743,4107.423626656053
2,1, 5, 1, 1, 7,30.00,35.00,Sunday
8743,4107.423626656053
2,1, 5, 1, 1, 7,35.00,40.00,Sunday
8743,4107.423626656053
2,1, 5, 1, 1, 7,40.00,45.00,Sunday
8743,4107.423626656053
2,1, 5, 1, 1, 7,45.00,50.00,Sunday
8743,4107.423626656053
2,1, 5, 1, 1, 7,50.00,55.00,Sunday
8743,4107.423626656053
2,1, 5, 1, 1, 7,55.00,60.00,Sunday
8743,4107.423626656053
2,1, 5, 1, 1, 8, 0.00, 5.00,Sunday
8743,4118.718935478509
2,1, 5, 1, 1, 8, 5.00,10.00,Sunday
8743,4118.572488230911
2,1, 5, 1, 1, 8,10.00,15.00,Sunday
8743,4118.572488230896
2,1, 5, 1, 1, 8,15.00,20.00,Sunday
8743,4118.572488230917
2,1, 5, 1, 1, 8,20.00,25.00,Sunday
8743,4118.572488230915
2,1, 5, 1, 1, 8,25.00,30.00,Sunday
8743,4118.572488230915
2,1, 5, 1, 1, 8,30.00,35.00,Sunday
8743,4118.572488230915
2,1, 5, 1, 1, 8,35.00,40.00,Sunday
8743,4118.572488230915
2,1, 5, 1, 1, 8,40.00,45.00,Sunday
8743,4118.572488230915
2,1, 5, 1, 1, 8,45.00,50.00,Sunday
8743,4118.572488230915
2,1, 5, 1, 1, 8,50.00,55.00,Sunday
8743,4118.572488230915
2,1, 5, 1, 1, 8,55.00,60.00,Sunday
8743,4118.572488230915
2,1, 5, 1, 1, 9, 0.00, 5.00,Sunday
8743,4129.840446525442
2,1, 5, 1, 1, 9, 5.00,10.00,Sunday
8743,4129.797848334907
2,1, 5, 1, 1, 9,10.00,15.00,Sunday
8743,4129.797848334907
2,1, 5, 1, 1, 9,15.00,20.00,Sunday
8743,5601.646490850592
2,1, 5, 1, 1, 9,20.00,25.00,Sunday
8743,5640.890625780077
2,1, 5, 1, 1, 9,25.00,30.00,Sunday
8743,5700.288264482335
2,1, 5, 1, 1, 9,30.00,35.00,Sunday
8743,5746.792862836036
2,1, 5, 1, 1, 9,35.00,40.00,Sunday
8743,5780.287024823036
2,1, 5, 1, 1, 9,40.00,45.00,Sunday
8743,5930.528612125933
2,1, 5, 1, 1, 9,45.00,50.00,Sunday
8743,5975.594616218799
2,1, 5, 1, 1, 9,50.00,55.00,Sunday
8743,6034.505699414447
2,1, 5, 1, 1, 9,55.00,60.00,Sunday
8743,6111.944131067154
2,1, 5, 1, 1,10, 0.00, 5.00,Sunday
8743,6227.325411074902
2,1, 5, 1, 1,10, 5.00,10.00,Sunday
8743,6255.328853351102
2,1, 5, 1, 1,10,10.00,15.00,Sunday
8743,6280.353610105029
2,1, 5, 1, 1,10,15.00,20.00,Sunday
8743,6385.1072016528119
2,1, 5, 1, 1,10,20.00,25.00,Sunday
8743,6415.045693429456
2,1, 5, 1, 1,10,25.00,30.00,Sunday
8743,6441.248494125022
2,1, 5, 1, 1,10,30.00,35.00,Sunday
8743,6459.331978796596
2,1, 5, 1, 1,10,35.00,40.00,Sunday
8743,6475.4564625065399
2,1, 5, 1, 1,10,40.00,45.00,Sunday
8743,6500.397888119165
2,1, 5, 1, 1,10,45.00,50.00,Sunday
8743,6497.417218539384
2,1, 5, 1, 1,10,50.00,55.00,Sunday
8743,6504.571273628782
2,1, 5, 1, 1,10,55.00,60.00,Sunday
8743,6489.3271148066619
2,1, 5, 1, 1,11, 0.00, 5.00,Sunday
8743,6440.483519349577
2,1, 5, 1, 1,11, 5.00,10.00,Sunday
8743,6272.775595606013
2,1, 5, 1, 1,11,10.00,15.00,Sunday
8743,6203.176276582695
2,1, 5, 1, 1,11,15.00,20.00,Sunday
8743,6135.895656971787
2,1, 5, 1, 1,11,20.00,25.00,Sunday
8743,6085.905257816993
2,1, 5, 1, 1,11,25.00,30.00,Sunday
8743,6063.821016900646
2,1, 5, 1, 1,11,30.00,35.00,Sunday
8743,6062.415281631749
2,1, 5, 1, 1,11,35.00,40.00,Sunday
8743,6052.650116918029
2,1, 5, 1, 1,11,40.00,45.00,Sunday
8743,6034.88550327987
2,1, 5, 1, 1,11,45.00,50.00,Sunday
8743,6096.38315294869
2,1, 5, 1, 1,11,50.00,55.00,Sunday
8743,6146.592726669771
2,1, 5, 1, 1,11,55.00,60.00,Sunday
8743,6204.454654555554
2,1, 5, 1, 1,12, 0.00, 5.00,Sunday
8743,6087.716756167481
2,1, 5, 1, 1,12, 5.00,10.00,Sunday
8743,5973.048731185048
2,1, 5, 1, 1,12,10.00,15.00,Sunday
8743,5929.438931772438
2,1, 5, 1, 1,12,15.00,20.00,Sunday
8743,5891.702568086632
2,1, 5, 1, 1,12,20.00,25.00,Sunday
8743,5872.850400529854
2,1, 5, 1, 1,12,25.00,30.00,Sunday
8743,5832.734719736092
2,1, 5, 1, 1,12,30.00,35.00,Sunday
8743,5821.345331030548
2,1, 5, 1, 1,12,35.00,40.00,Sunday
8743,5806.868989430942
2,1, 5, 1, 1,12,40.00,45.00,Sunday
8743,5773.489027759013
2,1, 5, 1, 1,12,45.00,50.00,Sunday
8743,5761.409220840784
2,1, 5, 1, 1,12,50.00,55.00,Sunday
8743,5763.809025158141
2,1, 5, 1, 1,12,55.00,60.00,Sunday
8743,5769.95706727093
2,1, 5, 1, 1,13, 0.00, 5.00,Sunday
8743,5661.023948400638
2,1, 5, 1, 1,13, 5.00,10.00,Sunday
8743,5619.558366325586
2,1, 5, 1, 1,13,10.00,15.00,Sunday
8743,5595.060550052284
2,1, 5, 1, 1,13,15.00,20.00,Sunday
8743,5576.359002564515
2,1, 5, 1, 1,13,20.00,25.00,Sunday
8743,5541.418608937693
2,1, 5, 1, 1,13,25.00,30.00,Sunday
8743,5517.749842925501
2,1, 5, 1, 1,13,30.00,35.00,Sunday
8743,5514.755795175908
2,1, 5, 1, 1,13,35.00,40.00,Sunday
8743,4117.990453179068
2,1, 5, 1, 1,13,40.00,45.00,Sunday
8743,4117.990453179068
2,1, 5, 1, 1,13,45.00,50.00,Sunday
8743,4117.990453179068
2,1, 5, 1, 1,13,50.00,55.00,Sunday
8743,4117.990453179068
2,1, 5, 1, 1,13,55.00,60.00,Sunday
8743,4117.990453179068
2,1, 5, 1, 1,14, 0.00, 5.00,Sunday
8743,4106.708596792079
2,1, 5, 1, 1,14, 5.00,10.00,Sunday
8743,4106.708596792079
2,1, 5, 1, 1,14,10.00,15.00,Sunday
8743,4106.708596792079
2,1, 5, 1, 1,14,15.00,20.00,Sunday
8743,4106.708596792079
2,1, 5, 1, 1,14,20.00,25.00,Sunday
8743,4106.708596792079
2,1, 5, 1, 1,14,25.00,30.00,Sunday
8743,4106.708596792079
2,1, 5, 1, 1,14,30.00,35.00,Sunday
8743,4106.708596792079
2,1, 5, 1, 1,14,35.00,40.00,Sunday
8743,4106.708596792079
2,1, 5, 1, 1,14,40.00,45.00,Sunday
8743,4106.708596792079
2,1, 5, 1, 1,14,45.00,50.00,Sunday
8743,4106.708596792079
2,1, 5, 1, 1,14,50.00,55.00,Sunday
8743,4106.708596792079
2,1, 5, 1, 1,14,55.00,60.00,Sunday
8743,4106.708596792079
2,1, 5, 1, 1,15, 0.00, 5.00,Sunday
8743,4141.189308231852
2,1, 5, 1, 1,15, 5.00,10.00,Sunday
8743,4141.254351115777
2,1, 5, 1, 1,15,10.00,15.00,Sunday
8743,5588.827081118281
2,1, 5, 1, 1,15,15.00,20.00,Sunday
8743,5688.407035594701
2,1, 5, 1, 1,15,20.00,25.00,Sunday
8743,5756.777442474043
2,1, 5, 1, 1,15,25.00,30.00,Sunday
8743,5859.673237102717
2,1, 5, 1, 1,15,30.00,35.00,Sunday
8743,5969.084889026377
2,1, 5, 1, 1,15,35.00,40.00,Sunday
8743,6153.898253202563
2,1, 5, 1, 1,15,40.00,45.00,Sunday
8743,6337.626903069131
2,1, 5, 1, 1,15,45.00,50.00,Sunday
8743,6595.7704107451
2,1, 5, 1, 1,15,50.00,55.00,Sunday
8743,6856.428091516858
2,1, 5, 1, 1,15,55.00,60.00,Sunday
8743,7186.396019936972
2,1, 5, 1, 1,16, 0.00, 5.00,Sunday
8743,8219.853598765918
2,1, 5, 1, 1,16, 5.00,10.00,Sunday
8743,8687.522891557794
2,1, 5, 1, 1,16,10.00,15.00,Sunday
8743,9138.430787727093
2,1, 5, 1, 1,16,15.00,20.00,Sunday
8743,9336.540358570317
2,1, 5, 1, 1,16,20.00,25.00,Sunday
8743,9675.251235737334
2,1, 5, 1, 1,16,25.00,30.00,Sunday
8743,9995.118053938328
2,1, 5, 1, 1,16,30.00,35.00,Sunday
8743,10259.572165885871
2,1, 5, 1, 1,16,35.00,40.00,Sunday
8743,10542.833953379903
2,1, 5, 1, 1,16,40.00,45.00,Sunday
8743,10765.184461885645
2,1, 5, 1, 1,16,45.00,50.00,Sunday
8743,10966.992935236083
2,1, 5, 1, 1,16,50.00,55.00,Sunday
8743,11195.460118529732
2,1, 5, 1, 1,16,55.00,60.00,Sunday
8743,11336.889962010162
2,1, 5, 1, 1,17, 0.00, 5.00,Sunday
8743,13706.275306842905
2,1, 5, 1, 1,17, 5.00,10.00,Sunday
8743,14492.99601884283
2,1, 5, 1, 1,17,10.00,15.00,Sunday
8743,14867.092772649903
2,1, 5, 1, 1,17,15.00,20.00,Sunday
8743,15146.225493608179
2,1, 5, 1, 1,17,20.00,25.00,Sunday
8743,15307.31722552605
2,1, 5, 1, 1,17,25.00,30.00,Sunday
8743,15526.673456643273
2,1, 5, 1, 1,17,30.00,35.00,Sunday
8743,15730.119908644783
2,1, 5, 1, 1,17,35.00,40.00,Sunday
8743,15899.10961369073
2,1, 5, 1, 1,17,40.00,45.00,Sunday
8743,16053.303227830607
2,1, 5, 1, 1,17,45.00,50.00,Sunday
8743,16235.622647465803
2,1, 5, 1, 1,17,50.00,55.00,Sunday
8743,16350.998601494419
2,1, 5, 1, 1,17,55.00,60.00,Sunday
8743,16557.302151632037
2,1, 5, 1, 1,18, 0.00, 5.00,Sunday
8743,17587.556309050702
2,1, 5, 1, 1,18, 5.00,10.00,Sunday
8743,17739.271234335112
2,1, 5, 1, 1,18,10.00,15.00,Sunday
8743,17268.394610548807
2,1, 5, 1, 1,18,15.00,20.00,Sunday
8743,16902.70757598488
2,1, 5, 1, 1,18,20.00,25.00,Sunday
8743,16451.282163924723
2,1, 5, 1, 1,18,25.00,30.00,Sunday
8743,15932.869790581239
2,1, 5, 1, 1,18,30.00,35.00,Sunday
8743,15315.843233588188
2,1, 5, 1, 1,18,35.00,40.00,Sunday
8743,14635.59273070534
2,1, 5, 1, 1,18,40.00,45.00,Sunday
8743,13994.351111552243
2,1, 5, 1, 1,18,45.00,50.00,Sunday
8743,13320.877141794519
2,1, 5, 1, 1,18,50.00,55.00,Sunday
8743,12678.00792435796
2,1, 5, 1, 1,18,55.00,60.00,Sunday
8743,11895.451611075625
2,1, 5, 1, 1,19, 0.00, 5.00,Sunday
8743,11330.528129394977
2,1, 5, 1, 1,19, 5.00,10.00,Sunday
8743,11071.394824297713
2,1, 5, 1, 1,19,10.00,15.00,Sunday
8743,10961.511299926631
2,1, 5, 1, 1,19,15.00,20.00,Sunday
8743,10859.080766760377
2,1, 5, 1, 1,19,20.00,25.00,Sunday
8743,10776.348590521175
2,1, 5, 1, 1,19,25.00,30.00,Sunday
8743,10711.143477183123
2,1, 5, 1, 1,19,30.00,35.00,Sunday
8743,10734.582748353541
2,1, 5, 1, 1,19,35.00,40.00,Sunday
8743,10739.484440081425
2,1, 5, 1, 1,19,40.00,45.00,Sunday
8743,10677.105205343601
2,1, 5, 1, 1,19,45.00,50.00,Sunday
8743,10013.82498632372
2,1, 5, 1, 1,19,50.00,55.00,Sunday
8743,9799.176630479704
2,1, 5, 1, 1,19,55.00,60.00,Sunday
8743,9875.802139378264
2,1, 5, 1, 1,20, 0.00, 5.00,Sunday
8743,9111.557835338603
2,1, 5, 1, 1,20, 5.00,10.00,Sunday
8743,8630.191055296013
2,1, 5, 1, 1,20,10.00,15.00,Sunday
8743,8324.414880018247
2,1, 5, 1, 1,20,15.00,20.00,Sunday
8743,8060.560915551763
2,1, 5, 1, 1,20,20.00,25.00,Sunday
8743,7827.392515812471
2,1, 5, 1, 1,20,25.00,30.00,Sunday
8743,7579.901419788239
2,1, 5, 1, 1,20,30.00,35.00,Sunday
8743,7413.847739467626
2,1, 5, 1, 1,20,35.00,40.00,Sunday
8743,7229.424431759049
2,1, 5, 1, 1,20,40.00,45.00,Sunday
8743,7062.035492131544
2,1, 5, 1, 1,20,45.00,50.00,Sunday
8743,6924.876334295217
2,1, 5, 1, 1,20,50.00,55.00,Sunday
8743,6751.739229611452
2,1, 5, 1, 1,20,55.00,60.00,Sunday
8743,6642.96542726909
2,1, 5, 1, 1,21, 0.00, 5.00,Sunday
8743,6372.547145958276
2,1, 5, 1, 1,21, 5.00,10.00,Sunday
8743,6188.2751329942279
2,1, 5, 1, 1,21,10.00,15.00,Sunday
8743,6157.639800148536
2,1, 5, 1, 1,21,15.00,20.00,Sunday
8743,6122.29284967105
2,1, 5, 1, 1,21,20.00,25.00,Sunday
8743,6099.66524527789
2,1, 5, 1, 1,21,25.00,30.00,Sunday
8743,6073.08562184995
2,1, 5, 1, 1,21,30.00,35.00,Sunday
8743,6033.497937976559
2,1, 5, 1, 1,21,35.00,40.00,Sunday
8743,6024.649450692633
2,1, 5, 1, 1,21,40.00,45.00,Sunday
8743,5982.298901603045
2,1, 5, 1, 1,21,45.00,50.00,Sunday
8743,5958.666164136811
2,1, 5, 1, 1,21,50.00,55.00,Sunday
8743,5946.5177448359049
2,1, 5, 1, 1,21,55.00,60.00,Sunday
8743,5928.408764372894
2,1, 5, 1, 1,22, 0.00, 5.00,Sunday
8743,4178.096701071936
2,1, 5, 1, 1,22, 5.00,10.00,Sunday
8743,4177.867831088535
2,1, 5, 1, 1,22,10.00,15.00,Sunday
8743,4177.867831088553
2,1, 5, 1, 1,22,15.00,20.00,Sunday
8743,4177.867831088555
2,1, 5, 1, 1,22,20.00,25.00,Sunday
8743,4177.867831088553
2,1, 5, 1, 1,22,25.00,30.00,Sunday
8743,4177.867831088553
2,1, 5, 1, 1,22,30.00,35.00,Sunday
8743,4177.867831088553
2,1, 5, 1, 1,22,35.00,40.00,Sunday
8743,4177.867831088553
2,1, 5, 1, 1,22,40.00,45.00,Sunday
8743,4177.867831088553
2,1, 5, 1, 1,22,45.00,50.00,Sunday
8743,4177.867831088553
2,1, 5, 1, 1,22,50.00,55.00,Sunday
8743,4177.867831088553
2,1, 5, 1, 1,22,55.00,60.00,Sunday
8743,4177.867831088553
2,1, 5, 1, 1,23, 0.00, 5.00,Sunday
8743,4033.5915245380667
2,1, 5, 1, 1,23, 5.00,10.00,Sunday
8743,4033.466282519588
2,1, 5, 1, 1,23,10.00,15.00,Sunday
8743,4033.466282519588
2,1, 5, 1, 1,23,15.00,20.00,Sunday
8743,4033.466282519588
2,1, 5, 1, 1,23,20.00,25.00,Sunday
8743,4033.466282519588
2,1, 5, 1, 1,23,25.00,30.00,Sunday
8743,4033.466282519588
2,1, 5, 1, 1,23,30.00,35.00,Sunday
8743,4033.466282519588
2,1, 5, 1, 1,23,35.00,40.00,Sunday
8743,4033.466282519588
2,1, 5, 1, 1,23,40.00,45.00,Sunday
8743,4033.466282519588
2,1, 5, 1, 1,23,45.00,50.00,Sunday
8743,4033.466282519588
2,1, 5, 1, 1,23,50.00,55.00,Sunday
8743,4033.466282519588
2,1, 5, 1, 1,23,55.00,60.00,Sunday
8743,4033.466282519588
2,1, 5, 1, 1,24, 0.00, 5.00,Sunday
8743,3922.9741940559426
2,1, 5, 1, 1,24, 5.00,10.00,Sunday
8743,3922.934111082914
2,1, 5, 1, 1,24,10.00,15.00,Sunday
8743,3922.934111082914
2,1, 5, 1, 1,24,15.00,20.00,Sunday
8743,3922.934111082914
2,1, 5, 1, 1,24,20.00,25.00,Sunday
8743,5421.580135937836
2,1, 5, 1, 1,24,25.00,30.00,Sunday
8743,3922.934111082914
2,1, 5, 1, 1,24,30.00,35.00,Sunday
8743,3922.934111082914
2,1, 5, 1, 1,24,35.00,40.00,Sunday
8743,5436.093904280794
2,1, 5, 1, 1,24,40.00,45.00,Sunday
8743,3922.934111082914
2,1, 5, 1, 1,24,45.00,50.00,Sunday
8743,3922.934111082914
2,1, 5, 1, 1,24,50.00,55.00,Sunday
8743,5475.135646184512
2,1, 5, 1, 1,24,55.00,60.00,Sunday
8743,3922.934111082914
2,2, 5, 2, 1, 1, 0.00, 5.00,Monday
8743,3895.2523500235258
2,2, 5, 2, 1, 1, 5.00,10.00,Monday
8743,5621.830373611688
2,2, 5, 2, 1, 1,10.00,15.00,Monday
8743,3895.2523500235258
2,2, 5, 2, 1, 1,15.00,20.00,Monday
8743,5416.951211641239
2,2, 5, 2, 1, 1,20.00,25.00,Monday
8743,5552.78172147128
2,2, 5, 2, 1, 1,25.00,30.00,Monday
8743,5476.068174790488
2,2, 5, 2, 1, 1,30.00,35.00,Monday
8743,3895.2523500235258
2,2, 5, 2, 1, 1,35.00,40.00,Monday
8743,5780.455697178681
2,2, 5, 2, 1, 1,40.00,45.00,Monday
8743,3895.2523500235258
2,2, 5, 2, 1, 1,45.00,50.00,Monday
8743,5489.831924737731
2,2, 5, 2, 1, 1,50.00,55.00,Monday
8743,5662.893791191956
2,2, 5, 2, 1, 1,55.00,60.00,Monday
8743,5636.7813199718589
2,2, 5, 2, 1, 2, 0.00, 5.00,Monday
8743,5404.067593455178
2,2, 5, 2, 1, 2, 5.00,10.00,Monday
8743,5705.719435904748
2,2, 5, 2, 1, 2,10.00,15.00,Monday
8743,5612.828808035867
2,2, 5, 2, 1, 2,15.00,20.00,Monday
8743,5643.764474467177
2,2, 5, 2, 1, 2,20.00,25.00,Monday
8743,5449.077415062882
2,2, 5, 2, 1, 2,25.00,30.00,Monday
8743,5895.552133702195
2,2, 5, 2, 1, 2,30.00,35.00,Monday
8743,5476.222473539937
2,2, 5, 2, 1, 2,35.00,40.00,Monday
8743,5833.016045819199
2,2, 5, 2, 1, 2,40.00,45.00,Monday
8743,5678.5128145801759
2,2, 5, 2, 1, 2,45.00,50.00,Monday
8743,5741.674748047199
2,2, 5, 2, 1, 2,50.00,55.00,Monday
8743,5623.632391991919
2,2, 5, 2, 1, 2,55.00,60.00,Monday
8743,6126.537130225343
2,2, 5, 2, 1, 3, 0.00, 5.00,Monday
8743,5487.727656049276
2,2, 5, 2, 1, 3, 5.00,10.00,Monday
8743,5919.490501283916
2,2, 5, 2, 1, 3,10.00,15.00,Monday
8743,5782.72075029198
2,2, 5, 2, 1, 3,15.00,20.00,Monday
8743,5997.360713076967
2,2, 5, 2, 1, 3,20.00,25.00,Monday
8743,5507.690244625278
2,2, 5, 2, 1, 3,25.00,30.00,Monday
8743,6285.653973215818
2,2, 5, 2, 1, 3,30.00,35.00,Monday
8743,5515.707237540472
2,2, 5, 2, 1, 3,35.00,40.00,Monday
8743,6036.621492125007
2,2, 5, 2, 1, 3,40.00,45.00,Monday
8743,5848.668789415239
2,2, 5, 2, 1, 3,45.00,50.00,Monday
8743,6050.182598131852
2,2, 5, 2, 1, 3,50.00,55.00,Monday
8743,5652.029848099899
2,2, 5, 2, 1, 3,55.00,60.00,Monday
8743,6424.903363490987
2,2, 5, 2, 1, 4, 0.00, 5.00,Monday
8743,5533.745837918435
2,2, 5, 2, 1, 4, 5.00,10.00,Monday
8743,6065.490629782774
2,2, 5, 2, 1, 4,10.00,15.00,Monday
8743,5995.178033609105
2,2, 5, 2, 1, 4,15.00,20.00,Monday
8743,6204.280664777287
2,2, 5, 2, 1, 4,20.00,25.00,Monday
8743,5533.665330917424
2,2, 5, 2, 1, 4,25.00,30.00,Monday
8743,6431.215803218437
2,2, 5, 2, 1, 4,30.00,35.00,Monday
8743,5534.192130003017
2,2, 5, 2, 1, 4,35.00,40.00,Monday
8743,6342.997915664187
2,2, 5, 2, 1, 4,40.00,45.00,Monday
8743,5900.6376805103
2,2, 5, 2, 1, 4,45.00,50.00,Monday
8743,6090.604246919791
2,2, 5, 2, 1, 4,50.00,55.00,Monday
8743,5537.997979444486
2,2, 5, 2, 1, 4,55.00,60.00,Monday
8743,6736.244123314967
2,2, 5, 2, 1, 5, 0.00, 5.00,Monday
8743,5565.3580261066749
2,2, 5, 2, 1, 5, 5.00,10.00,Monday
8743,6065.1836034831699
2,2, 5, 2, 1, 5,10.00,15.00,Monday
8743,5846.535946819987
2,2, 5, 2, 1, 5,15.00,20.00,Monday
8743,6067.972282778496
2,2, 5, 2, 1, 5,20.00,25.00,Monday
8743,5558.804412142642
2,2, 5, 2, 1, 5,25.00,30.00,Monday
8743,6550.985199102734
2,2, 5, 2, 1, 5,30.00,35.00,Monday
8743,5560.507976906144
2,2, 5, 2, 1, 5,35.00,40.00,Monday
8743,6245.872082780607
2,2, 5, 2, 1, 5,40.00,45.00,Monday
8743,5921.323089683323
2,2, 5, 2, 1, 5,45.00,50.00,Monday
8743,6272.582393537365
2,2, 5, 2, 1, 5,50.00,55.00,Monday
8743,5576.7229614999819
2,2, 5, 2, 1, 5,55.00,60.00,Monday
8743,6673.176063065325
2,2, 5, 2, 1, 6, 0.00, 5.00,Monday
8743,6239.188231539307
2,2, 5, 2, 1, 6, 5.00,10.00,Monday
8743,5930.106273058456
2,2, 5, 2, 1, 6,10.00,15.00,Monday
8743,5791.726626890157
2,2, 5, 2, 1, 6,15.00,20.00,Monday
8743,6001.082654516105
2,2, 5, 2, 1, 6,20.00,25.00,Monday
8743,3996.563429522809
2,2, 5, 2, 1, 6,25.00,30.00,Monday
8743,6261.587727682559
2,2, 5, 2, 1, 6,30.00,35.00,Monday
8743,3996.563429522809
2,2, 5, 2, 1, 6,35.00,40.00,Monday
8743,5709.115645782516
2,2, 5, 2, 1, 6,40.00,45.00,Monday
8743,5555.423453979435
2,2, 5, 2, 1, 6,45.00,50.00,Monday
8743,5727.634665689158
2,2, 5, 2, 1, 6,50.00,55.00,Monday
8743,3996.563429522809
2,2, 5, 2, 1, 6,55.00,60.00,Monday
8743,5660.98414453686
2,2, 5, 2, 1, 7, 0.00, 5.00,Monday
8743,5196.255672167648
2,2, 5, 2, 1, 7, 5.00,10.00,Monday
8743,4451.429624704274
2,2, 5, 2, 1, 7,10.00,15.00,Monday
8743,4109.021071900429
2,2, 5, 2, 1, 7,15.00,20.00,Monday
8743,5616.700744852281
2,2, 5, 2, 1, 7,20.00,25.00,Monday
8743,5639.068061210352
2,2, 5, 2, 1, 7,25.00,30.00,Monday
8743,4109.021071900429
2,2, 5, 2, 1, 7,30.00,35.00,Monday
8743,4109.021071900429
2,2, 5, 2, 1, 7,35.00,40.00,Monday
8743,5612.889623853517
2,2, 5, 2, 1, 7,40.00,45.00,Monday
8743,4109.021071900429
2,2, 5, 2, 1, 7,45.00,50.00,Monday
8743,4109.021071900429
2,2, 5, 2, 1, 7,50.00,55.00,Monday
8743,4109.021071900429
2,2, 5, 2, 1, 7,55.00,60.00,Monday
8743,4109.021071900429
2,2, 5, 2, 1, 8, 0.00, 5.00,Monday
8743,4511.3884882509469
2,2, 5, 2, 1, 8, 5.00,10.00,Monday
8743,4732.51169606525
2,2, 5, 2, 1, 8,10.00,15.00,Monday
8743,4128.882791075674
2,2, 5, 2, 1, 8,15.00,20.00,Monday
8743,4128.882791075694
2,2, 5, 2, 1, 8,20.00,25.00,Monday
8743,4842.183010923793
2,2, 5, 2, 1, 8,25.00,30.00,Monday
8743,5592.971055403535
2,2, 5, 2, 1, 8,30.00,35.00,Monday
8743,5660.201332147897
2,2, 5, 2, 1, 8,35.00,40.00,Monday
8743,5703.645833886888
2,2, 5, 2, 1, 8,40.00,45.00,Monday
8743,5775.267788307484
2,2, 5, 2, 1, 8,45.00,50.00,Monday
8743,5897.963793729657
2,2, 5, 2, 1, 8,50.00,55.00,Monday
8743,5952.42689260799
2,2, 5, 2, 1, 8,55.00,60.00,Monday
8743,6083.664497755094
2,2, 5, 2, 1, 9, 0.00, 5.00,Monday
8743,6150.3034314321289
2,2, 5, 2, 1, 9, 5.00,10.00,Monday
8743,6180.0139432993369
2,2, 5, 2, 1, 9,10.00,15.00,Monday
8743,6279.5288204326839
2,2, 5, 2, 1, 9,15.00,20.00,Monday
8743,6379.657334144685
2,2, 5, 2, 1, 9,20.00,25.00,Monday
8743,6495.9391695856079
2,2, 5, 2, 1, 9,25.00,30.00,Monday
8743,6737.953322776404
2,2, 5, 2, 1, 9,30.00,35.00,Monday
8743,6824.2227590155239
2,2, 5, 2, 1, 9,35.00,40.00,Monday
8743,7021.442987987902
2,2, 5, 2, 1, 9,40.00,45.00,Monday
8743,7132.859137016797
2,2, 5, 2, 1, 9,45.00,50.00,Monday
8743,7266.329155869976
2,2, 5, 2, 1, 9,50.00,55.00,Monday
8743,7419.251887483033
2,2, 5, 2, 1, 9,55.00,60.00,Monday
8743,7525.067296898028
2,2, 5, 2, 1,10, 0.00, 5.00,Monday
8743,7686.486022198093
2,2, 5, 2, 1,10, 5.00,10.00,Monday
8743,7730.5549978959129
2,2, 5, 2, 1,10,10.00,15.00,Monday
8743,7796.757208439278
2,2, 5, 2, 1,10,15.00,20.00,Monday
8743,7846.21441397323
2,2, 5, 2, 1,10,20.00,25.00,Monday
8743,7919.1313206522959
2,2, 5, 2, 1,10,25.00,30.00,Monday
8743,7918.19880503583
2,2, 5, 2, 1,10,30.00,35.00,Monday
8743,7921.354163856298
2,2, 5, 2, 1,10,35.00,40.00,Monday
8743,7912.003263980313
2,2, 5, 2, 1,10,40.00,45.00,Monday
8743,7885.852063962901
2,2, 5, 2, 1,10,45.00,50.00,Monday
8743,7871.890640592314
2,2, 5, 2, 1,10,50.00,55.00,Monday
8743,7836.6834452819289
2,2, 5, 2, 1,10,55.00,60.00,Monday
8743,7832.63631286272
2,2, 5, 2, 1,11, 0.00, 5.00,Monday
8743,7778.040161019101
2,2, 5, 2, 1,11, 5.00,10.00,Monday
8743,7560.374498530487
2,2, 5, 2, 1,11,10.00,15.00,Monday
8743,7480.06986250679
2,2, 5, 2, 1,11,15.00,20.00,Monday
8743,7392.710757904895
2,2, 5, 2, 1,11,20.00,25.00,Monday
8743,7337.051516728832
2,2, 5, 2, 1,11,25.00,30.00,Monday
8743,4176.318982584785
2,2, 5, 2, 1,11,30.00,35.00,Monday
8743,4176.318982584782
2,2, 5, 2, 1,11,35.00,40.00,Monday
8743,4176.318982584799
2,2, 5, 2, 1,11,40.00,45.00,Monday
8743,4176.318982584799
2,2, 5, 2, 1,11,45.00,50.00,Monday
8743,4176.318982584799
2,2, 5, 2, 1,11,50.00,55.00,Monday
8743,4176.318982584799
2,2, 5, 2, 1,11,55.00,60.00,Monday
8743,4176.318982584799
2,2, 5, 2, 1,12, 0.00, 5.00,Monday
8743,4163.128342475299
2,2, 5, 2, 1,12, 5.00,10.00,Monday
8743,4163.1247933836179
2,2, 5, 2, 1,12,10.00,15.00,Monday
8743,4163.1247933836179
2,2, 5, 2, 1,12,15.00,20.00,Monday
8743,4163.1247933836179
2,2, 5, 2, 1,12,20.00,25.00,Monday
8743,4163.1247933836179
2,2, 5, 2, 1,12,25.00,30.00,Monday
8743,4163.1247933836179
2,2, 5, 2, 1,12,30.00,35.00,Monday
8743,4163.1247933836179
2,2, 5, 2, 1,12,35.00,40.00,Monday
8743,4163.1247933836179
2,2, 5, 2, 1,12,40.00,45.00,Monday
8743,4163.1247933836179
2,2, 5, 2, 1,12,45.00,50.00,Monday
8743,4163.1247933836179
2,2, 5, 2, 1,12,50.00,55.00,Monday
8743,4163.1247933836179
2,2, 5, 2, 1,12,55.00,60.00,Monday
8743,4163.1247933836179
2,2, 5, 2, 1,13, 0.00, 5.00,Monday
8743,4128.287676424114
2,2, 5, 2, 1,13, 5.00,10.00,Monday
8743,4128.291042319621
2,2, 5, 2, 1,13,10.00,15.00,Monday
8743,4128.291042319621
2,2, 5, 2, 1,13,15.00,20.00,Monday
8743,4128.291042319621
2,2, 5, 2, 1,13,20.00,25.00,Monday
8743,4128.291042319621
2,2, 5, 2, 1,13,25.00,30.00,Monday
8743,4128.291042319621
2,2, 5, 2, 1,13,30.00,35.00,Monday
8743,4128.291042319621
2,2, 5, 2, 1,13,35.00,40.00,Monday
8743,4128.291042319621
2,2, 5, 2, 1,13,40.00,45.00,Monday
8743,4128.291042319621
2,2, 5, 2, 1,13,45.00,50.00,Monday
8743,4128.291042319621
2,2, 5, 2, 1,13,50.00,55.00,Monday
8743,4128.291042319621
2,2, 5, 2, 1,13,55.00,60.00,Monday
8743,4128.291042319621
2,2, 5, 2, 1,14, 0.00, 5.00,Monday
8743,4116.819823623533
2,2, 5, 2, 1,14, 5.00,10.00,Monday
8743,4116.819823623533
2,2, 5, 2, 1,14,10.00,15.00,Monday
8743,4116.819823623533
2,2, 5, 2, 1,14,15.00,20.00,Monday
8743,4116.819823623533
2,2, 5, 2, 1,14,20.00,25.00,Monday
8743,4116.819823623533
2,2, 5, 2, 1,14,25.00,30.00,Monday
8743,4116.819823623533
2,2, 5, 2, 1,14,30.00,35.00,Monday
8743,4116.819823623533
2,2, 5, 2, 1,14,35.00,40.00,Monday
8743,4116.819823623533
2,2, 5, 2, 1,14,40.00,45.00,Monday
8743,4116.819823623533
2,2, 5, 2, 1,14,45.00,50.00,Monday
8743,4116.819823623533
2,2, 5, 2, 1,14,50.00,55.00,Monday
8743,4116.819823623533
2,2, 5, 2, 1,14,55.00,60.00,Monday
8743,4116.819823623533
2,2, 5, 2, 1,15, 0.00, 5.00,Monday
8743,4151.873053883541
2,2, 5, 2, 1,15, 5.00,10.00,Monday
8743,4151.939159822511
2,2, 5, 2, 1,15,10.00,15.00,Monday
8743,4151.939159822511
2,2, 5, 2, 1,15,15.00,20.00,Monday
8743,4151.939159822511
2,2, 5, 2, 1,15,20.00,25.00,Monday
8743,4151.939159822511
2,2, 5, 2, 1,15,25.00,30.00,Monday
8743,4151.939159822511
2,2, 5, 2, 1,15,30.00,35.00,Monday
8743,4151.939159822511
2,2, 5, 2, 1,15,35.00,40.00,Monday
8743,4151.939159822511
2,2, 5, 2, 1,15,40.00,45.00,Monday
8743,4151.939159822511
2,2, 5, 2, 1,15,45.00,50.00,Monday
8743,4151.939159822511
2,2, 5, 2, 1,15,50.00,55.00,Monday
8743,4151.939159822511
2,2, 5, 2, 1,15,55.00,60.00,Monday
8743,4151.939159822511
2,2, 5, 2, 1,16, 0.00, 5.00,Monday
8743,4312.475752938324
2,2, 5, 2, 1,16, 5.00,10.00,Monday
8743,4312.665037023919
2,2, 5, 2, 1,16,10.00,15.00,Monday
8743,4312.665037023919
2,2, 5, 2, 1,16,15.00,20.00,Monday
8743,4312.665037023919
2,2, 5, 2, 1,16,20.00,25.00,Monday
8743,4312.665037023919
2,2, 5, 2, 1,16,25.00,30.00,Monday
8743,4312.665037023919
2,2, 5, 2, 1,16,30.00,35.00,Monday
8743,4312.665037023919
2,2, 5, 2, 1,16,35.00,40.00,Monday
8743,4312.665037023919
2,2, 5, 2, 1,16,40.00,45.00,Monday
8743,4312.665037023919
2,2, 5, 2, 1,16,45.00,50.00,Monday
8743,4312.665037023919
2,2, 5, 2, 1,16,50.00,55.00,Monday
8743,4312.665037023919
2,2, 5, 2, 1,16,55.00,60.00,Monday
8743,4312.665037023919
2,2, 5, 2, 1,17, 0.00, 5.00,Monday
8743,4643.078356807219
2,2, 5, 2, 1,17, 5.00,10.00,Monday
8743,4643.2557297338139
2,2, 5, 2, 1,17,10.00,15.00,Monday
8743,4643.2557297338139
2,2, 5, 2, 1,17,15.00,20.00,Monday
8743,4643.2557297338139
2,2, 5, 2, 1,17,20.00,25.00,Monday
8743,4643.2557297338139
2,2, 5, 2, 1,17,25.00,30.00,Monday
8743,4643.2557297338139
2,2, 5, 2, 1,17,30.00,35.00,Monday
8743,4643.255729733789
2,2, 5, 2, 1,17,35.00,40.00,Monday
8743,4643.2557297338139
2,2, 5, 2, 1,17,40.00,45.00,Monday
8743,4643.2557297338139
2,2, 5, 2, 1,17,45.00,50.00,Monday
8743,4643.2557297338139
2,2, 5, 2, 1,17,50.00,55.00,Monday
8743,4643.2557297338139
2,2, 5, 2, 1,17,55.00,60.00,Monday
8743,4643.2557297338139
2,2, 5, 2, 1,18, 0.00, 5.00,Monday
8743,4640.451011705559
2,2, 5, 2, 1,18, 5.00,10.00,Monday
8743,4640.703526154307
2,2, 5, 2, 1,18,10.00,15.00,Monday
8743,4640.703526154307
2,2, 5, 2, 1,18,15.00,20.00,Monday
8743,4640.703526154307
2,2, 5, 2, 1,18,20.00,25.00,Monday
8743,4640.703526154307
2,2, 5, 2, 1,18,25.00,30.00,Monday
8743,4640.703526154307
2,2, 5, 2, 1,18,30.00,35.00,Monday
8743,4640.703526154307
2,2, 5, 2, 1,18,35.00,40.00,Monday
8743,4640.703526154307
2,2, 5, 2, 1,18,40.00,45.00,Monday
8743,4640.703526154307
2,2, 5, 2, 1,18,45.00,50.00,Monday
8743,4640.703526154307