Program Version,EnergyPlus, Version 9.0.1-bb7ca4f0da, YMD=2024.08.21 15:44
1,5,Environment Title[],Latitude[deg],Longitude[deg],Time Zone[],Elevation[m]
2,8,Day of Simulation[],Month[],Day of Month[],DST Indicator[1=yes 0=no],Hour[],StartMinute[],EndMinute[],DayType
3,5,Cumulative Day of Simulation[],Month[],Day of Month[],DST Indicator[1=yes 0=no],DayType  ! When Daily Meters Requested
4,2,Cumulative Days of Simulation[],Month[]  ! When Monthly Meters Requested
5,1,Cumulative Days of Simulation[] ! When Run Period Meters Requested
6,1,Calendar Year of Simulation[] ! When Annual Meters Requested
10,1,Electricity:Facility [J] !Hourly
8708,1,ElectricityNet:Facility [J] !Hourly
3550,1,Gas:Facility [J] !Hourly
2399,1,InteriorEquipment:Electricity [J] !Hourly
46,1,InteriorLights:Electricity [J] !Hourly
End of Data Dictionary
1,RUNPERIOD 1,  35.04,-106.62,  -7.00,1619.00
2,1, 5, 1, 1, 1, 0.00,60.00,Sunday
10,145329542.08003087
46,18528594.31998858
2399,72776509.29434879
3550,33337836.0
8708,145329542.08003248
2,1, 5, 1, 1, 2, 0.00,60.00,Sunday
10,141861728.67027534
46,18528594.31998858
2399,69428446.02933632
3550,33337836.0
8708,141861728.6702769
2,1, 5, 1, 1, 3, 0.00,60.00,Sunday
10,142570874.7646818
46,18528594.31998858
2399,67754414.39682992
3550,33337836.0
8708,142570874.7646834
2,1, 5, 1, 1, 4, 0.00,60.00,Sunday
10,154666324.77171359
46,26721477.97243234
2399,71432354.39682992
3550,33337836.0
8708,154666324.7717152
2,1, 5, 1, 1, 5, 0.00,60.00,Sunday
10,184556323.61953996
46,41059024.81671337
2399,87158392.55936134
3550,33337836.0
8708,184556323.61954157
2,1, 5, 1, 1, 6, 0.00,60.00,Sunday
10,194629262.56465949
46,43107245.639323528
2399,120284500.51693063
3550,159357730.119778
8708,194629262.56465993
2,1, 5, 1, 1, 7, 0.00,60.00,Sunday
10,202282952.96441246
46,41059024.81671337
2399,146054728.4744999
3550,235991012.541893
8708,202282952.96441389
2,1, 5, 1, 1, 8, 0.00,60.00,Sunday
10,189277142.97124256
46,26721477.97243234
2399,147728760.10700623
3550,229185210.64452759
8708,189277142.97124417
2,1, 5, 1, 1, 9, 0.00,60.00,Sunday
10,180467582.04595769
46,22625035.96520881
2399,138368971.73951254
3550,220210316.32185076
8708,180467582.0459593
2,1, 5, 1, 1,10, 0.00,60.00,Sunday
10,172709584.32977266
46,22625035.96520881
2399,127005275.00452493
3550,184112565.08923207
8708,172709584.32977427
2,1, 5, 1, 1,11, 0.00,60.00,Sunday
10,173444174.2300081
46,22625035.96520881
2399,128679306.63703139
3550,147416565.13456393
8708,173444174.23000977
2,1, 5, 1, 1,12, 0.00,60.00,Sunday
10,170715622.2004224
46,22625035.96520881
2399,127005275.00452493
3550,116545531.83714801
8708,170715622.200424
2,1, 5, 1, 1,13, 0.00,60.00,Sunday
10,162492979.5862967
46,22625035.96520881
2399,121983180.1070062
3550,114969925.63112857
8708,162492979.58629827
2,1, 5, 1, 1,14, 0.00,60.00,Sunday
10,157718335.3881587
46,22625035.96520881
2399,120309148.4744999
3550,113309458.8552676
8708,157718335.3881604
2,1, 5, 1, 1,15, 0.00,60.00,Sunday
10,175183542.43600367
46,28769699.15704594
2399,125331243.37201898
3550,114897570.15184316
8708,175183542.43600533
2,1, 5, 1, 1,16, 0.00,60.00,Sunday
10,239274523.75838713
46,43107245.639323528
2399,160131382.96209438
3550,125342793.7371878
8708,239274523.7583852
2,1, 5, 1, 1,17, 0.00,60.00,Sunday
10,315804317.8386743
46,55396571.298990879
2399,204645835.61222039
3550,173011777.8376848
8708,315804317.8386725
2,1, 5, 1, 1,18, 0.00,60.00,Sunday
10,329496615.3867433
46,69734118.14327161
2399,204645835.61222039
3550,221189805.60308988
8708,329496615.38674148
2,1, 5, 1, 1,19, 0.00,60.00,Sunday
10,313460042.13642039
46,79975222.98032911
2399,185571734.18467615
3550,187637385.05284424
8708,313460042.1364185
2,1, 5, 1, 1,20, 0.00,60.00,Sunday
10,324910862.81788358
46,79975222.98032911
2399,178875607.65465085
3550,183701123.411894
8708,324910862.8178817
2,1, 5, 1, 1,21, 0.00,60.00,Sunday
10,284775237.8586977
46,59493013.3062144
2399,164823601.1246259
3550,154440862.5445313
8708,284775237.85869577
2,1, 5, 1, 1,22, 0.00,60.00,Sunday
10,226674834.7545531
46,39010803.63209971
2399,134031278.2695377
3550,138040864.14598558
8708,226674834.75455127
2,1, 5, 1, 1,23, 0.00,60.00,Sunday
10,182699120.3864525
46,24673257.149822248
2399,104912987.04695572
3550,59868634.975877959
8708,182699120.38645406
2,1, 5, 1, 1,24, 0.00,60.00,Sunday
10,152085367.17509783
46,18528594.31998858
2399,79472635.8243741
3550,56652871.634643789
8708,152085367.17509944
2,2, 5, 2, 1, 1, 0.00,60.00,Monday
10,147963044.69874249
46,18528594.31998858
2399,72776509.29434879
3550,33337836.0
8708,147963044.6987441
2,2, 5, 2, 1, 2, 0.00,60.00,Monday
10,147006581.98877288
46,18528594.31998858
2399,69428446.02933632
3550,33337836.0
8708,147006581.98877443
2,2, 5, 2, 1, 3, 0.00,60.00,Monday
10,146027995.86702089
46,18528594.31998858
2399,67754414.39682992
3550,33337836.0
8708,146027995.8670225
2,2, 5, 2, 1, 4, 0.00,60.00,Monday
10,158318067.48208473
46,26721477.97243234
2399,71432354.39682992
3550,33337836.0
8708,158318067.48208634
2,2, 5, 2, 1, 5, 0.00,60.00,Monday
10,188381284.58744518
46,41059024.81671337
2399,87158392.55936134
3550,33337836.0
8708,188381284.58744673
2,2, 5, 2, 1, 6, 0.00,60.00,Monday
10,192499798.06992624
46,43107245.639323528
2399,120284500.51693063
3550,130378077.72814992
8708,192499798.069927
2,2, 5, 2, 1, 7, 0.00,60.00,Monday
10,203936256.11924077
46,41059024.81671337
2399,146293383.9335012
3550,259350331.01945705
8708,203936256.11924217
2,2, 5, 2, 1, 8, 0.00,60.00,Monday
10,197088595.4834791
46,28958421.146958624
2399,149227177.3451531
3550,234944469.82413129
8708,197088595.4834807
2,2, 5, 2, 1, 9, 0.00,60.00,Monday
10,189153138.89117537
46,24861979.139735078
2399,139867388.97765938
3550,188723506.9818321
8708,189153138.89117695
2,2, 5, 2, 1,10, 0.00,60.00,Monday
10,181613000.18002448
46,24861979.139735078
2399,128503692.24267179
3550,184189613.7437839
8708,181613000.1800261
2,2, 5, 2, 1,11, 0.00,60.00,Monday
10,175074446.91734699
46,24861979.139735078
2399,130177723.87517827
3550,147738853.85071106
8708,175074446.91734854
2,2, 5, 2, 1,12, 0.00,60.00,Monday
10,167910755.00703059
46,24537513.819436253
2399,128385990.86668752
3550,144400519.57024393
8708,167910755.00703223
2,2, 5, 2, 1,13, 0.00,60.00,Monday
10,163205423.22746859
46,24861979.139735078
2399,123481597.34515308
3550,114813094.76296464
8708,163205423.2274702
2,2, 5, 2, 1,14, 0.00,60.00,Monday
10,161490096.2174252
46,24861979.139735078
2399,121807565.71264674
3550,86612866.76817931
8708,161490096.2174267
2,2, 5, 2, 1,15, 0.00,60.00,Monday
10,172783264.08531589
46,31006642.33157221
2399,126829660.61016584
3550,114675365.13893774
8708,172783264.08531753
2,2, 5, 2, 1,16, 0.00,60.00,Monday
10,222499526.36215339
46,45344188.81384978
2399,161629800.20024125
3550,144843754.916147
8708,222499526.36215154
2,2, 5, 2, 1,17, 0.00,60.00,Monday
10,276996729.785378
46,55396571.298990879
2399,204884491.07122169
3550,182375018.60388095
8708,276996729.78537616
2,2, 5, 2, 1,18, 0.00,60.00,Monday
10,291086410.69531449
46,69734118.14327161
2399,204645835.61222039
3550,201668671.1088646
8708,291086410.69531258
2,2, 5, 2, 1,19, 0.00,60.00,Monday
10,291429911.78591206
46,79975222.98032911
2399,185571734.18467615
3550,206878404.85328735
8708,291429911.7859102
2,2, 5, 2, 1,20, 0.00,60.00,Monday
10,313429724.26134136
46,79975222.98032911
2399,178875607.65465085
3550,183439695.2328043
8708,313429724.2613394
2,2, 5, 2, 1,21, 0.00,60.00,Monday
10,278660029.8456528
46,59493013.3062144
2399,164823601.1246259
3550,147462757.20879264
8708,278660029.845651
2,2, 5, 2, 1,22, 0.00,60.00,Monday
10,244937175.0025783
46,39010803.63209971
2399,134031278.2695377
3550,116550352.61033096
8708,244937175.00257636
2,2, 5, 2, 1,23, 0.00,60.00,Monday
10,192790794.6265905
46,24673257.149822248
2399,104912987.04695572
3550,84888071.77933052
8708,192790794.6265921
2,2, 5, 2, 1,24, 0.00,60.00,Monday
10,156664871.13654164
46,18528594.31998858
2399,79472635.8243741
3550,33337836.0
8708,156664871.13654325
End of Data
 Number of Records Written=         240
