Program Version,EnergyPlus, Version 9.0.1-bb7ca4f0da, YMD=2024.08.21 15:48
1,5,Environment Title[],Latitude[deg],Longitude[deg],Time Zone[],Elevation[m]
2,8,Day of Simulation[],Month[],Day of Month[],DST Indicator[1=yes 0=no],Hour[],StartMinute[],EndMinute[],DayType
3,5,Cumulative Day of Simulation[],Month[],Day of Month[],DST Indicator[1=yes 0=no],DayType  ! When Daily Meters Requested
4,2,Cumulative Days of Simulation[],Month[]  ! When Monthly Meters Requested
5,1,Cumulative Days of Simulation[] ! When Run Period Meters Requested
6,1,Calendar Year of Simulation[] ! When Annual Meters Requested
10,1,Electricity:Facility [J] !Hourly
8708,1,ElectricityNet:Facility [J] !Hourly
3550,1,Gas:Facility [J] !Hourly
2399,1,InteriorEquipment:Electricity [J] !Hourly
46,1,InteriorLights:Electricity [J] !Hourly
End of Data Dictionary
1,RUNPERIOD 1,  33.63, -84.43,  -5.00, 308.00
2,1, 5, 1, 1, 1, 0.00,60.00,Sunday
10,143691573.83332426
46,18528594.31998858
2399,72776509.29434879
3550,33337836.0
8708,143691573.83332587
2,1, 5, 1, 1, 2, 0.00,60.00,Sunday
10,141198564.7122173
46,18528594.31998858
2399,69428446.02933632
3550,33337836.0
8708,141198564.7122189
2,1, 5, 1, 1, 3, 0.00,60.00,Sunday
10,138601455.23612274
46,18528594.31998858
2399,67754414.39682992
3550,33337836.0
8708,138601455.23612435
2,1, 5, 1, 1, 4, 0.00,60.00,Sunday
10,150472572.57657305
46,26721477.97243234
2399,71432354.39682992
3550,33337836.0
8708,150472572.57657457
2,1, 5, 1, 1, 5, 0.00,60.00,Sunday
10,180653443.3541097
46,41059024.81671337
2399,87158392.55936134
3550,33337836.0
8708,180653443.35411126
2,1, 5, 1, 1, 6, 0.00,60.00,Sunday
10,209710904.00838465
46,43107245.639323528
2399,120284500.51693063
3550,127476290.46270986
8708,209710904.0083834
2,1, 5, 1, 1, 7, 0.00,60.00,Sunday
10,201671718.95584453
46,41059024.81671337
2399,146054728.4744999
3550,225866755.10788466
8708,201671718.955846
2,1, 5, 1, 1, 8, 0.00,60.00,Sunday
10,189048377.41862453
46,26721477.97243234
2399,147728760.10700623
3550,220301298.15735764
8708,189048377.41862614
2,1, 5, 1, 1, 9, 0.00,60.00,Sunday
10,175632527.18556444
46,22625035.96520881
2399,138368971.73951254
3550,187386262.04954959
8708,175632527.18556596
2,1, 5, 1, 1,10, 0.00,60.00,Sunday
10,164352740.00847564
46,22625035.96520881
2399,127005275.00452493
3550,151161405.34800447
8708,164352740.0084772
2,1, 5, 1, 1,11, 0.00,60.00,Sunday
10,166070462.85635246
46,22625035.96520881
2399,128679306.63703139
3550,145720005.55547256
8708,166070462.8563541
2,1, 5, 1, 1,12, 0.00,60.00,Sunday
10,164352740.00847564
46,22625035.96520881
2399,127005275.00452493
3550,115268503.20690711
8708,164352740.0084772
2,1, 5, 1, 1,13, 0.00,60.00,Sunday
10,159204216.15104006
46,22625035.96520881
2399,121983180.1070062
3550,113879281.46591269
8708,159204216.15104167
2,1, 5, 1, 1,14, 0.00,60.00,Sunday
10,157489569.83554069
46,22625035.96520881
2399,120309148.4744999
3550,86020005.3160187
8708,157489569.83554239
2,1, 5, 1, 1,15, 0.00,60.00,Sunday
10,168780673.127597
46,28769699.15704594
2399,125331243.37201898
3550,113753636.89349875
8708,168780673.12759865
2,1, 5, 1, 1,16, 0.00,60.00,Sunday
10,218488156.41612447
46,43107245.639323528
2399,160131382.96209438
3550,115816457.66577292
8708,218488156.41612257
2,1, 5, 1, 1,17, 0.00,60.00,Sunday
10,276519200.07938668
46,55396571.298990879
2399,204645835.61222039
3550,179105119.35225795
8708,276519200.0793846
2,1, 5, 1, 1,18, 0.00,60.00,Sunday
10,290857645.14269646
46,69734118.14327161
2399,204645835.61222039
3550,185812218.32957349
8708,290857645.14269456
2,1, 5, 1, 1,19, 0.00,60.00,Sunday
10,281553056.233294
46,79975222.98032911
2399,185571734.18467615
3550,183693981.53009326
8708,281553056.23329219
2,1, 5, 1, 1,20, 0.00,60.00,Sunday
10,303552868.7087233
46,79975222.98032911
2399,178875607.65465085
3550,171258958.69781656
8708,303552868.70872136
2,1, 5, 1, 1,21, 0.00,60.00,Sunday
10,278431264.2930348
46,59493013.3062144
2399,164823601.1246259
3550,126138321.59363568
8708,278431264.2930329
2,1, 5, 1, 1,22, 0.00,60.00,Sunday
10,266411388.49295593
46,39010803.63209971
2399,134031278.2695377
3550,115387163.51283132
8708,266411388.49295406
2,1, 5, 1, 1,23, 0.00,60.00,Sunday
10,203708537.71211083
46,24673257.149822248
2399,104912987.04695572
3550,84561386.23767083
8708,203708537.7121125
2,1, 5, 1, 1,24, 0.00,60.00,Sunday
10,158944522.514725
46,18528594.31998858
2399,79472635.8243741
3550,33337836.0
8708,158944522.51472659
2,2, 5, 2, 1, 1, 0.00,60.00,Monday
10,149787997.4537093
46,18528594.31998858
2399,72776509.29434879
3550,33337836.0
8708,149787997.4537109
2,2, 5, 2, 1, 2, 0.00,60.00,Monday
10,145323587.1591903
46,18528594.31998858
2399,69428446.02933632
3550,33337836.0
8708,145323587.15919186
2,2, 5, 2, 1, 3, 0.00,60.00,Monday
10,138601455.23612274
46,18528594.31998858
2399,67754414.39682992
3550,33337836.0
8708,138601455.23612435
2,2, 5, 2, 1, 4, 0.00,60.00,Monday
10,150922939.01280216
46,26721477.97243234
2399,71432354.39682992
3550,33337836.0
8708,150922939.01280368
2,2, 5, 2, 1, 5, 0.00,60.00,Monday
10,181103656.34853906
46,41059024.81671337
2399,87158392.55936134
3550,33337836.0
8708,181103656.3485406
2,2, 5, 2, 1, 6, 0.00,60.00,Monday
10,209710904.00838465
46,43107245.639323528
2399,120284500.51693063
3550,127404120.25224546
8708,209710904.00838337
2,2, 5, 2, 1, 7, 0.00,60.00,Monday
10,201916125.23419065
46,41059024.81671337
2399,146293383.9335012
3550,222590604.439177
8708,201916125.2341921
2,2, 5, 2, 1, 8, 0.00,60.00,Monday
10,192820848.68485333
46,28958421.146958624
2399,149227177.3451531
3550,194295652.6010046
8708,192820848.68485496
2,2, 5, 2, 1, 9, 0.00,60.00,Monday
10,179405675.62169705
46,24861979.139735078
2399,139867388.97765938
3550,194688822.97837309
8708,179405675.62169857
2,2, 5, 2, 1,10, 0.00,60.00,Monday
10,168127259.6876081
46,24861979.139735078
2399,128503692.24267179
3550,171067651.05649168
8708,168127259.68760959
2,2, 5, 2, 1,11, 0.00,60.00,Monday
10,169845685.79959915
46,24861979.139735078
2399,130177723.87517827
3550,145423241.47617603
8708,169845685.79960064
2,2, 5, 2, 1,12, 0.00,60.00,Monday
10,167681989.45441256
46,24537513.819436253
2399,128385990.86668752
3550,115233533.85647576
8708,167681989.4544142
2,2, 5, 2, 1,13, 0.00,60.00,Monday
10,162976657.67485056
46,24861979.139735078
2399,123481597.34515308
3550,113730941.96175173
8708,162976657.67485217
2,2, 5, 2, 1,14, 0.00,60.00,Monday
10,161261330.66480718
46,24861979.139735078
2399,121807565.71264674
3550,85981896.91785932
8708,161261330.66480867
2,2, 5, 2, 1,15, 0.00,60.00,Monday
10,172554498.53269787
46,31006642.33157221
2399,126829660.61016584
3550,113754960.75055483
8708,172554498.5326995
2,2, 5, 2, 1,16, 0.00,60.00,Monday
10,222270760.80953536
46,45344188.81384978
2399,161629800.20024125
3550,115780903.24677149
8708,222270760.8095335
2,2, 5, 2, 1,17, 0.00,60.00,Monday
10,313823243.7317493
46,55396571.298990879
2399,204884491.07122169
3550,149941972.09593676
8708,313823243.7317474
2,2, 5, 2, 1,18, 0.00,60.00,Monday
10,315397711.28457435
46,69734118.14327161
2399,204645835.61222039
3550,209658697.99961929
8708,315397711.2845724
2,2, 5, 2, 1,19, 0.00,60.00,Monday
10,281553056.233294
46,79975222.98032911
2399,185571734.18467615
3550,183801872.73526968
8708,281553056.23329219
2,2, 5, 2, 1,20, 0.00,60.00,Monday
10,303552868.7087233
46,79975222.98032911
2399,178875607.65465085
3550,156397346.46945317
8708,303552868.70872136
2,2, 5, 2, 1,21, 0.00,60.00,Monday
10,278431264.2930348
46,59493013.3062144
2399,164823601.1246259
3550,145476551.69371433
8708,278431264.29303297
2,2, 5, 2, 1,22, 0.00,60.00,Monday
10,350937784.03990539
46,39010803.63209971
2399,134031278.2695377
3550,115271713.38114965
8708,350937784.03990367
2,2, 5, 2, 1,23, 0.00,60.00,Monday
10,266723389.8440732
46,24673257.149822248
2399,104912987.04695572
3550,58728295.16339086
8708,266723389.84407503
2,2, 5, 2, 1,24, 0.00,60.00,Monday
10,213114845.0164114
46,18528594.31998858
2399,79472635.8243741
3550,33337836.0
8708,213114845.01641316
End of Data
 Number of Records Written=         240
